file 32772 1710994399                                           
version 3
run test3-0-20240321-05:10:43-37864
attr configname test3
attr datetime 20240321-05:10:43
attr datetimef 20240321-051043
attr experiment test3
attr inifile omnetpp.ini
attr iterationvars ""
attr iterationvarsd ""
attr iterationvarsf ""
attr measurement ""
attr network MultiCell_Standalone
attr processid 37864
attr repetition 0
attr replication #0
attr resultdir results
attr runnumber 0
attr seedset 0
config image-path ../../inet4.5/images:../../simu5G/images
config network MultiCell_Standalone
config *.configurator.config "xmldoc(\"./config.xml\")"
config *.ue[*].mobility.typename ""
config *.ue[*].macCellId 0
config *.ue[*].masterId 0
config *.ue[*].nrMacCellId 1
config *.ue[*].nrMasterId 1
config **.dynamicCellAssociation true
config **.enableHandover true
config *.ue[1..7].numApps 1
config *.ue[0].numApps 2
config *.ue[*].app[0].typename UdpSink
config *.ue[*].app[0].localPort 3001
config *.ue[0].app[1].typename UdpBasicApp
config *.ue[0].app[1].sendInterval 0.01s
config *.ue[0].app[1].startTime 0.01s
config *.ue[0].app[1].messageLength 100B
config *.ue[0].app[1].destAddresses "\"224.0.1.1\""
config *.ue[0].app[1].destPort 3000
config *.server.numApps 1
config *.server.app[0].typename UdpGroupManagement
config *.server.app[0].localPort 3000
config *.server.app[0].localAddress "\"224.0.1.1\""

vector 0 MultiCell_Standalone.server.ppp[0].ppp transmissionState:vector ETV
attr interpolationmode sample-hold
attr recordingmode vector
attr source transmissionStateChanged
attr title "tx state"
vector 1 MultiCell_Standalone.server.udp passedUpPk:vector(count) ETV
attr interpolationmode none
attr recordingmode vector(count)
attr source packetSentToUpper
attr title "packets passed up, count"
vector 2 MultiCell_Standalone.server.udp droppedPkWrongPort:vector(count) ETV
attr interpolationmode none
attr recordingmode vector(count)
attr source packetDropReasonIsNoPortFound(packetDropped)
attr title "packets dropped (wrong port), count"
vector 3 MultiCell_Standalone.server.udp droppedPkBadChecksum:vector(count) ETV
attr interpolationmode none
attr recordingmode vector(count)
attr source packetDropReasonIsIncorrectlyReceived(packetDropped)
attr title "packets dropped (checksum error), count"
vector 4 MultiCell_Standalone.router.ppp[0].ppp transmissionState:vector ETV
attr interpolationmode sample-hold
attr recordingmode vector
attr source transmissionStateChanged
attr title "tx state"
vector 5 MultiCell_Standalone.router.ppp[1].ppp transmissionState:vector ETV
attr interpolationmode sample-hold
attr recordingmode vector
attr source transmissionStateChanged
attr title "tx state"
vector 6 MultiCell_Standalone.upf.ppp[0].ppp transmissionState:vector ETV
attr interpolationmode sample-hold
attr recordingmode vector
attr source transmissionStateChanged
attr title "tx state"
vector 7 MultiCell_Standalone.upf.pppIf.ppp transmissionState:vector ETV
attr interpolationmode sample-hold
attr recordingmode vector
attr source transmissionStateChanged
attr title "tx state"
vector 8 MultiCell_Standalone.upf.udp passedUpPk:vector(count) ETV
attr interpolationmode none
attr recordingmode vector(count)
attr source packetSentToUpper
attr title "packets passed up, count"
vector 9 MultiCell_Standalone.upf.udp droppedPkWrongPort:vector(count) ETV
attr interpolationmode none
attr recordingmode vector(count)
attr source packetDropReasonIsNoPortFound(packetDropped)
attr title "packets dropped (wrong port), count"
vector 10 MultiCell_Standalone.upf.udp droppedPkBadChecksum:vector(count) ETV
attr interpolationmode none
attr recordingmode vector(count)
attr source packetDropReasonIsIncorrectlyReceived(packetDropped)
attr title "packets dropped (checksum error), count"
vector 11 MultiCell_Standalone.iUpf.ppp[0].ppp transmissionState:vector ETV
attr interpolationmode sample-hold
attr recordingmode vector
attr source transmissionStateChanged
attr title "tx state"
vector 12 MultiCell_Standalone.iUpf.ppp[1].ppp transmissionState:vector ETV
attr interpolationmode sample-hold
attr recordingmode vector
attr source transmissionStateChanged
attr title "tx state"
vector 13 MultiCell_Standalone.iUpf.ppp[2].ppp transmissionState:vector ETV
attr interpolationmode sample-hold
attr recordingmode vector
attr source transmissionStateChanged
attr title "tx state"
vector 14 MultiCell_Standalone.iUpf.pppIf.ppp transmissionState:vector ETV
attr interpolationmode sample-hold
attr recordingmode vector
attr source transmissionStateChanged
attr title "tx state"
vector 15 MultiCell_Standalone.iUpf.udp passedUpPk:vector(count) ETV
attr interpolationmode none
attr recordingmode vector(count)
attr source packetSentToUpper
attr title "packets passed up, count"
vector 16 MultiCell_Standalone.iUpf.udp droppedPkWrongPort:vector(count) ETV
attr interpolationmode none
attr recordingmode vector(count)
attr source packetDropReasonIsNoPortFound(packetDropped)
attr title "packets dropped (wrong port), count"
vector 17 MultiCell_Standalone.iUpf.udp droppedPkBadChecksum:vector(count) ETV
attr interpolationmode none
attr recordingmode vector(count)
attr source packetDropReasonIsIncorrectlyReceived(packetDropped)
attr title "packets dropped (checksum error), count"
vector 18 MultiCell_Standalone.gnb1.pppIf.ppp transmissionState:vector ETV
attr interpolationmode sample-hold
attr recordingmode vector
attr source transmissionStateChanged
attr title "tx state"
vector 19 MultiCell_Standalone.gnb1.x2ppp[0].ppp transmissionState:vector ETV
attr interpolationmode sample-hold
attr recordingmode vector
attr source transmissionStateChanged
attr title "tx state"
vector 20 MultiCell_Standalone.gnb1.pppMEHostIf.ppp transmissionState:vector ETV
attr interpolationmode sample-hold
attr recordingmode vector
attr source transmissionStateChanged
attr title "tx state"
vector 21 MultiCell_Standalone.gnb1.udp passedUpPk:vector(count) ETV
attr interpolationmode none
attr recordingmode vector(count)
attr source packetSentToUpper
attr title "packets passed up, count"
vector 22 MultiCell_Standalone.gnb1.udp droppedPkWrongPort:vector(count) ETV
attr interpolationmode none
attr recordingmode vector(count)
attr source packetDropReasonIsNoPortFound(packetDropped)
attr title "packets dropped (wrong port), count"
vector 23 MultiCell_Standalone.gnb1.udp droppedPkBadChecksum:vector(count) ETV
attr interpolationmode none
attr recordingmode vector(count)
attr source packetDropReasonIsIncorrectlyReceived(packetDropped)
attr title "packets dropped (checksum error), count"
vector 24 MultiCell_Standalone.gnb2.pppIf.ppp transmissionState:vector ETV
attr interpolationmode sample-hold
attr recordingmode vector
attr source transmissionStateChanged
attr title "tx state"
vector 25 MultiCell_Standalone.gnb2.x2ppp[0].ppp transmissionState:vector ETV
attr interpolationmode sample-hold
attr recordingmode vector
attr source transmissionStateChanged
attr title "tx state"
vector 26 MultiCell_Standalone.gnb2.pppMEHostIf.ppp transmissionState:vector ETV
attr interpolationmode sample-hold
attr recordingmode vector
attr source transmissionStateChanged
attr title "tx state"
vector 27 MultiCell_Standalone.gnb2.udp passedUpPk:vector(count) ETV
attr interpolationmode none
attr recordingmode vector(count)
attr source packetSentToUpper
attr title "packets passed up, count"
vector 28 MultiCell_Standalone.gnb2.udp droppedPkWrongPort:vector(count) ETV
attr interpolationmode none
attr recordingmode vector(count)
attr source packetDropReasonIsNoPortFound(packetDropped)
attr title "packets dropped (wrong port), count"
vector 29 MultiCell_Standalone.gnb2.udp droppedPkBadChecksum:vector(count) ETV
attr interpolationmode none
attr recordingmode vector(count)
attr source packetDropReasonIsIncorrectlyReceived(packetDropped)
attr title "packets dropped (checksum error), count"
vector 30 MultiCell_Standalone.ue[0].udp passedUpPk:vector(count) ETV
attr interpolationmode none
attr recordingmode vector(count)
attr source packetSentToUpper
attr title "packets passed up, count"
vector 31 MultiCell_Standalone.ue[0].udp droppedPkWrongPort:vector(count) ETV
attr interpolationmode none
attr recordingmode vector(count)
attr source packetDropReasonIsNoPortFound(packetDropped)
attr title "packets dropped (wrong port), count"
vector 32 MultiCell_Standalone.ue[0].udp droppedPkBadChecksum:vector(count) ETV
attr interpolationmode none
attr recordingmode vector(count)
attr source packetDropReasonIsIncorrectlyReceived(packetDropped)
attr title "packets dropped (checksum error), count"
vector 33 MultiCell_Standalone.ue[1].udp passedUpPk:vector(count) ETV
attr interpolationmode none
attr recordingmode vector(count)
attr source packetSentToUpper
attr title "packets passed up, count"
vector 34 MultiCell_Standalone.ue[1].udp droppedPkWrongPort:vector(count) ETV
attr interpolationmode none
attr recordingmode vector(count)
attr source packetDropReasonIsNoPortFound(packetDropped)
attr title "packets dropped (wrong port), count"
vector 35 MultiCell_Standalone.ue[1].udp droppedPkBadChecksum:vector(count) ETV
attr interpolationmode none
attr recordingmode vector(count)
attr source packetDropReasonIsIncorrectlyReceived(packetDropped)
attr title "packets dropped (checksum error), count"
vector 36 MultiCell_Standalone.ue[2].udp passedUpPk:vector(count) ETV
attr interpolationmode none
attr recordingmode vector(count)
attr source packetSentToUpper
attr title "packets passed up, count"
vector 37 MultiCell_Standalone.ue[2].udp droppedPkWrongPort:vector(count) ETV
attr interpolationmode none
attr recordingmode vector(count)
attr source packetDropReasonIsNoPortFound(packetDropped)
attr title "packets dropped (wrong port), count"
vector 38 MultiCell_Standalone.ue[2].udp droppedPkBadChecksum:vector(count) ETV
attr interpolationmode none
attr recordingmode vector(count)
attr source packetDropReasonIsIncorrectlyReceived(packetDropped)
attr title "packets dropped (checksum error), count"
vector 39 MultiCell_Standalone.ue[3].udp passedUpPk:vector(count) ETV
attr interpolationmode none
attr recordingmode vector(count)
attr source packetSentToUpper
attr title "packets passed up, count"
vector 40 MultiCell_Standalone.ue[3].udp droppedPkWrongPort:vector(count) ETV
attr interpolationmode none
attr recordingmode vector(count)
attr source packetDropReasonIsNoPortFound(packetDropped)
attr title "packets dropped (wrong port), count"
vector 41 MultiCell_Standalone.ue[3].udp droppedPkBadChecksum:vector(count) ETV
attr interpolationmode none
attr recordingmode vector(count)
attr source packetDropReasonIsIncorrectlyReceived(packetDropped)
attr title "packets dropped (checksum error), count"
vector 42 MultiCell_Standalone.ue[4].udp passedUpPk:vector(count) ETV
attr interpolationmode none
attr recordingmode vector(count)
attr source packetSentToUpper
attr title "packets passed up, count"
vector 43 MultiCell_Standalone.ue[4].udp droppedPkWrongPort:vector(count) ETV
attr interpolationmode none
attr recordingmode vector(count)
attr source packetDropReasonIsNoPortFound(packetDropped)
attr title "packets dropped (wrong port), count"
vector 44 MultiCell_Standalone.ue[4].udp droppedPkBadChecksum:vector(count) ETV
attr interpolationmode none
attr recordingmode vector(count)
attr source packetDropReasonIsIncorrectlyReceived(packetDropped)
attr title "packets dropped (checksum error), count"
vector 45 MultiCell_Standalone.ue[5].udp passedUpPk:vector(count) ETV
attr interpolationmode none
attr recordingmode vector(count)
attr source packetSentToUpper
attr title "packets passed up, count"
vector 46 MultiCell_Standalone.ue[5].udp droppedPkWrongPort:vector(count) ETV
attr interpolationmode none
attr recordingmode vector(count)
attr source packetDropReasonIsNoPortFound(packetDropped)
attr title "packets dropped (wrong port), count"
vector 47 MultiCell_Standalone.ue[5].udp droppedPkBadChecksum:vector(count) ETV
attr interpolationmode none
attr recordingmode vector(count)
attr source packetDropReasonIsIncorrectlyReceived(packetDropped)
attr title "packets dropped (checksum error), count"
vector 48 MultiCell_Standalone.ue[6].udp passedUpPk:vector(count) ETV
attr interpolationmode none
attr recordingmode vector(count)
attr source packetSentToUpper
attr title "packets passed up, count"
vector 49 MultiCell_Standalone.ue[6].udp droppedPkWrongPort:vector(count) ETV
attr interpolationmode none
attr recordingmode vector(count)
attr source packetDropReasonIsNoPortFound(packetDropped)
attr title "packets dropped (wrong port), count"
vector 50 MultiCell_Standalone.ue[6].udp droppedPkBadChecksum:vector(count) ETV
attr interpolationmode none
attr recordingmode vector(count)
attr source packetDropReasonIsIncorrectlyReceived(packetDropped)
attr title "packets dropped (checksum error), count"
vector 51 MultiCell_Standalone.ue[7].udp passedUpPk:vector(count) ETV
attr interpolationmode none
attr recordingmode vector(count)
attr source packetSentToUpper
attr title "packets passed up, count"
vector 52 MultiCell_Standalone.ue[7].udp droppedPkWrongPort:vector(count) ETV
attr interpolationmode none
attr recordingmode vector(count)
attr source packetDropReasonIsNoPortFound(packetDropped)
attr title "packets dropped (wrong port), count"
vector 53 MultiCell_Standalone.ue[7].udp droppedPkBadChecksum:vector(count) ETV
attr interpolationmode none
attr recordingmode vector(count)
attr source packetDropReasonIsIncorrectlyReceived(packetDropped)
attr title "packets dropped (checksum error), count"
vector 54 MultiCell_Standalone.ue[0].cellularNic.phy servingCell:vector ETV
attr recordingmode vector
attr source servingCell
attr title "ID of the serving eNodeB for the UE"
attr unit ""
vector 55 MultiCell_Standalone.ue[0].cellularNic.nrChannelModel[0] distance:vector ETV
attr recordingmode vector
attr source distance
attr title "distance between UE and serving base station"
attr unit meters
vector 56 MultiCell_Standalone.ue[0].cellularNic.nrPhy servingCell:vector ETV
attr recordingmode vector
attr source servingCell
attr title "ID of the serving eNodeB for the UE"
attr unit ""
vector 57 MultiCell_Standalone.ue[1].cellularNic.phy servingCell:vector ETV
attr recordingmode vector
attr source servingCell
attr title "ID of the serving eNodeB for the UE"
attr unit ""
vector 58 MultiCell_Standalone.ue[1].cellularNic.nrChannelModel[0] distance:vector ETV
attr recordingmode vector
attr source distance
attr title "distance between UE and serving base station"
attr unit meters
vector 59 MultiCell_Standalone.ue[1].cellularNic.nrPhy servingCell:vector ETV
attr recordingmode vector
attr source servingCell
attr title "ID of the serving eNodeB for the UE"
attr unit ""
vector 60 MultiCell_Standalone.ue[2].cellularNic.phy servingCell:vector ETV
attr recordingmode vector
attr source servingCell
attr title "ID of the serving eNodeB for the UE"
attr unit ""
vector 61 MultiCell_Standalone.ue[2].cellularNic.nrChannelModel[0] distance:vector ETV
attr recordingmode vector
attr source distance
attr title "distance between UE and serving base station"
attr unit meters
vector 62 MultiCell_Standalone.ue[2].cellularNic.nrPhy servingCell:vector ETV
attr recordingmode vector
attr source servingCell
attr title "ID of the serving eNodeB for the UE"
attr unit ""
vector 63 MultiCell_Standalone.ue[3].cellularNic.phy servingCell:vector ETV
attr recordingmode vector
attr source servingCell
attr title "ID of the serving eNodeB for the UE"
attr unit ""
vector 64 MultiCell_Standalone.ue[3].cellularNic.nrChannelModel[0] distance:vector ETV
attr recordingmode vector
attr source distance
attr title "distance between UE and serving base station"
attr unit meters
vector 65 MultiCell_Standalone.ue[3].cellularNic.nrPhy servingCell:vector ETV
attr recordingmode vector
attr source servingCell
attr title "ID of the serving eNodeB for the UE"
attr unit ""
vector 66 MultiCell_Standalone.ue[4].cellularNic.phy servingCell:vector ETV
attr recordingmode vector
attr source servingCell
attr title "ID of the serving eNodeB for the UE"
attr unit ""
vector 67 MultiCell_Standalone.ue[4].cellularNic.nrChannelModel[0] distance:vector ETV
attr recordingmode vector
attr source distance
attr title "distance between UE and serving base station"
attr unit meters
vector 68 MultiCell_Standalone.ue[4].cellularNic.nrPhy servingCell:vector ETV
attr recordingmode vector
attr source servingCell
attr title "ID of the serving eNodeB for the UE"
attr unit ""
vector 69 MultiCell_Standalone.ue[5].cellularNic.phy servingCell:vector ETV
attr recordingmode vector
attr source servingCell
attr title "ID of the serving eNodeB for the UE"
attr unit ""
vector 70 MultiCell_Standalone.ue[5].cellularNic.nrChannelModel[0] distance:vector ETV
attr recordingmode vector
attr source distance
attr title "distance between UE and serving base station"
attr unit meters
vector 71 MultiCell_Standalone.ue[5].cellularNic.nrPhy servingCell:vector ETV
attr recordingmode vector
attr source servingCell
attr title "ID of the serving eNodeB for the UE"
attr unit ""
vector 72 MultiCell_Standalone.ue[6].cellularNic.phy servingCell:vector ETV
attr recordingmode vector
attr source servingCell
attr title "ID of the serving eNodeB for the UE"
attr unit ""
vector 73 MultiCell_Standalone.ue[6].cellularNic.nrChannelModel[0] distance:vector ETV
attr recordingmode vector
attr source distance
attr title "distance between UE and serving base station"
attr unit meters
vector 74 MultiCell_Standalone.ue[6].cellularNic.nrPhy servingCell:vector ETV
attr recordingmode vector
attr source servingCell
attr title "ID of the serving eNodeB for the UE"
attr unit ""
vector 75 MultiCell_Standalone.ue[7].cellularNic.phy servingCell:vector ETV
attr recordingmode vector
attr source servingCell
attr title "ID of the serving eNodeB for the UE"
attr unit ""
vector 76 MultiCell_Standalone.ue[7].cellularNic.nrChannelModel[0] distance:vector ETV
attr recordingmode vector
attr source distance
attr title "distance between UE and serving base station"
attr unit meters
vector 77 MultiCell_Standalone.ue[7].cellularNic.nrPhy servingCell:vector ETV
attr recordingmode vector
attr source servingCell
attr title "ID of the serving eNodeB for the UE"
attr unit ""
vector 78 MultiCell_Standalone.server.ppp[0].queue incomingPacketLengths:vector ETV
attr interpolationmode none
attr recordingmode vector
attr source packetLength(packetPushStarted)
attr title "incoming packet lengths"
attr unit b
vector 79 MultiCell_Standalone.server.ppp[0].queue queueingTime:vector ETV
attr interpolationmode none
attr recordingmode vector
attr source queueingTime(packetPulled)
attr title "queueing times"
attr unit s
vector 80 MultiCell_Standalone.server.ppp[0].queue outgoingPacketLengths:vector ETV
attr interpolationmode none
attr recordingmode vector
attr source packetLength(packetPulled)
attr title "outgoing packet lengths"
attr unit b
vector 81 MultiCell_Standalone.server.ppp[0].ppp rcvdPkFromHl:vector(packetBytes) ETV
attr interpolationmode none
attr recordingmode vector(packetBytes)
attr source packetReceivedFromUpper
attr title "packets received from higher layer, packetBytes"
vector 82 MultiCell_Standalone.server.ppp[0].ppp txPk:vector(packetBytes) ETV
attr interpolationmode none
attr recordingmode vector(packetBytes)
attr source packetSentToLower
attr title "packets transmitted, packetBytes"
vector 83 MultiCell_Standalone.server.ppp[0].queue queueLength:vector ETV
attr autoWarmupFilter false
attr interpolationmode sample-hold
attr recordingmode vector
attr source "warmup(atomic(constant0(packetPushEnded) + count(packetPushStarted) - count(packetPulled) - count(packetRemoved) - count(packetDropped)))"
attr title "queue length"
attr unit pk
vector 84 MultiCell_Standalone.server.ppp[0].queue queueBitLength:vector ETV
attr autoWarmupFilter false
attr interpolationmode sample-hold
attr recordingmode vector
attr source "warmup(atomic(constant0(packetPushEnded) + sum(packetLength(packetPushStarted)) - sum(packetLength(packetPulled)) - sum(packetLength(packetRemoved)) - sum(packetLength(packetDropped))))"
attr title "queue bit length"
attr unit b
vector 85 MultiCell_Standalone.router.ppp[0].ppp rxPkOk:vector(packetBytes) ETV
attr interpolationmode none
attr recordingmode vector(packetBytes)
attr source rxPkOk
attr title "packets received OK, packetBytes"
vector 86 MultiCell_Standalone.router.ppp[0].ppp passedUpPk:vector(packetBytes) ETV
attr interpolationmode none
attr recordingmode vector(packetBytes)
attr source packetSentToUpper
attr title "packets passed to higher layer, packetBytes"
vector 87 MultiCell_Standalone.gnb1.cellularNic.mac avgServedBlocksUl:vector ETV
attr recordingmode vector
attr source avgServedBlocksUl
attr title "Avg Served Blocks Ul"
attr unit blocks
vector 88 MultiCell_Standalone.gnb1.cellularNic.mac avgServedBlocksDl:vector ETV
attr recordingmode vector
attr source avgServedBlocksDl
attr title "Avg Served Blocks Dl"
attr unit blocks
vector 89 MultiCell_Standalone.gnb2.cellularNic.mac avgServedBlocksUl:vector ETV
attr recordingmode vector
attr source avgServedBlocksUl
attr title "Avg Served Blocks Ul"
attr unit blocks
vector 90 MultiCell_Standalone.gnb2.cellularNic.mac avgServedBlocksDl:vector ETV
attr recordingmode vector
attr source avgServedBlocksDl
attr title "Avg Served Blocks Dl"
attr unit blocks
vector 91 MultiCell_Standalone.ue[0].cellularNic.nrChannelModel[0] measuredSinrUl:vector ETV
attr recordingmode vector
attr source measuredSinrUl
attr title "SINR measured at feedback computation, UL"
attr unit dB
vector 92 MultiCell_Standalone.ue[0].cellularNic.nrChannelModel[0] measuredSinrDl:vector ETV
attr recordingmode vector
attr source measuredSinrDl
attr title "SINR measured at feedback computation, DL"
attr unit dB
vector 93 MultiCell_Standalone.gnb1.cellularNic.mac receivedPacketFromLowerLayer:vector(packetBytes) ETV
attr interpolationmode none
attr recordingmode vector(packetBytes)
attr source receivedPacketFromLowerLayer
vector 94 MultiCell_Standalone.ue[1].cellularNic.nrChannelModel[0] measuredSinrUl:vector ETV
attr recordingmode vector
attr source measuredSinrUl
attr title "SINR measured at feedback computation, UL"
attr unit dB
vector 95 MultiCell_Standalone.ue[1].cellularNic.nrChannelModel[0] measuredSinrDl:vector ETV
attr recordingmode vector
attr source measuredSinrDl
attr title "SINR measured at feedback computation, DL"
attr unit dB
vector 96 MultiCell_Standalone.ue[2].cellularNic.nrChannelModel[0] measuredSinrUl:vector ETV
attr recordingmode vector
attr source measuredSinrUl
attr title "SINR measured at feedback computation, UL"
attr unit dB
vector 97 MultiCell_Standalone.ue[2].cellularNic.nrChannelModel[0] measuredSinrDl:vector ETV
attr recordingmode vector
attr source measuredSinrDl
attr title "SINR measured at feedback computation, DL"
attr unit dB
vector 98 MultiCell_Standalone.ue[3].cellularNic.nrChannelModel[0] measuredSinrUl:vector ETV
attr recordingmode vector
attr source measuredSinrUl
attr title "SINR measured at feedback computation, UL"
attr unit dB
vector 99 MultiCell_Standalone.ue[3].cellularNic.nrChannelModel[0] measuredSinrDl:vector ETV
attr recordingmode vector
attr source measuredSinrDl
attr title "SINR measured at feedback computation, DL"
attr unit dB
vector 100 MultiCell_Standalone.ue[4].cellularNic.nrChannelModel[0] measuredSinrUl:vector ETV
attr recordingmode vector
attr source measuredSinrUl
attr title "SINR measured at feedback computation, UL"
attr unit dB
vector 101 MultiCell_Standalone.ue[4].cellularNic.nrChannelModel[0] measuredSinrDl:vector ETV
attr recordingmode vector
attr source measuredSinrDl
attr title "SINR measured at feedback computation, DL"
attr unit dB
vector 102 MultiCell_Standalone.ue[5].cellularNic.nrChannelModel[0] measuredSinrUl:vector ETV
attr recordingmode vector
attr source measuredSinrUl
attr title "SINR measured at feedback computation, UL"
attr unit dB
vector 103 MultiCell_Standalone.ue[5].cellularNic.nrChannelModel[0] measuredSinrDl:vector ETV
attr recordingmode vector
attr source measuredSinrDl
attr title "SINR measured at feedback computation, DL"
attr unit dB
vector 104 MultiCell_Standalone.ue[6].cellularNic.nrChannelModel[0] measuredSinrUl:vector ETV
attr recordingmode vector
attr source measuredSinrUl
attr title "SINR measured at feedback computation, UL"
attr unit dB
vector 105 MultiCell_Standalone.ue[6].cellularNic.nrChannelModel[0] measuredSinrDl:vector ETV
attr recordingmode vector
attr source measuredSinrDl
attr title "SINR measured at feedback computation, DL"
attr unit dB
vector 106 MultiCell_Standalone.ue[7].cellularNic.nrChannelModel[0] measuredSinrUl:vector ETV
attr recordingmode vector
attr source measuredSinrUl
attr title "SINR measured at feedback computation, UL"
attr unit dB
vector 107 MultiCell_Standalone.ue[7].cellularNic.nrChannelModel[0] measuredSinrDl:vector ETV
attr recordingmode vector
attr source measuredSinrDl
attr title "SINR measured at feedback computation, DL"
attr unit dB
0	24839 37 0 81 0 0.0000000312 3 0 1 1 1
1	24876 8 0 0 0 0 1 0 0 0 0
2	24884 8 0 0 0 0 1 0 0 0 0
3	24892 8 0 0 0 0 1 0 0 0 0
4	24900 8 0 0 0 0 1 0 0 0 0
5	24908 8 0 0 0 0 1 0 0 0 0
6	24916 8 0 0 0 0 1 0 0 0 0
7	24924 8 0 0 0 0 1 0 0 0 0
8	24932 8 0 0 0 0 1 0 0 0 0
9	24940 8 0 0 0 0 1 0 0 0 0
10	24948 9 0 0 0 0 1 0 0 0 0
11	24957 9 0 0 0 0 1 0 0 0 0
12	24966 9 0 0 0 0 1 0 0 0 0
13	24975 9 0 0 0 0 1 0 0 0 0
14	24984 9 0 0 0 0 1 0 0 0 0
15	24993 9 0 0 0 0 1 0 0 0 0
16	25002 9 0 0 0 0 1 0 0 0 0
17	25011 9 0 0 0 0 1 0 0 0 0
18	25020 9 0 0 0 0 1 0 0 0 0
19	25029 9 0 0 0 0 1 0 0 0 0
20	25038 9 0 0 0 0 1 0 0 0 0
21	25047 9 0 0 0 0 1 0 0 0 0
22	25056 9 0 0 0 0 1 0 0 0 0
23	25065 9 0 0 0 0 1 0 0 0 0
24	25074 9 0 0 0 0 1 0 0 0 0
25	25083 9 0 0 0 0 1 0 0 0 0
26	25092 9 0 0 0 0 1 0 0 0 0
27	25101 9 0 0 0 0 1 0 0 0 0
28	25110 9 0 0 0 0 1 0 0 0 0
29	25119 9 0 0 0 0 1 0 0 0 0
30	25128 9 0 0 0 0 1 0 0 0 0
31	25137 9 0 0 0 0 1 0 0 0 0
32	25146 9 0 0 0 0 1 0 0 0 0
33	25155 9 0 0 0 0 1 0 0 0 0
34	25164 9 0 0 0 0 1 0 0 0 0
35	25173 9 0 0 0 0 1 0 0 0 0
36	25182 9 0 0 0 0 1 0 0 0 0
37	25191 9 0 0 0 0 1 0 0 0 0
38	25200 9 0 0 0 0 1 0 0 0 0
39	25209 9 0 0 0 0 1 0 0 0 0
40	25218 9 0 0 0 0 1 0 0 0 0
41	25227 9 0 0 0 0 1 0 0 0 0
42	25236 9 0 0 0 0 1 0 0 0 0
43	25245 9 0 0 0 0 1 0 0 0 0
44	25254 9 0 0 0 0 1 0 0 0 0
45	25263 9 0 0 0 0 1 0 0 0 0
46	25272 9 0 0 0 0 1 0 0 0 0
47	25281 9 0 0 0 0 1 0 0 0 0
48	25290 9 0 0 0 0 1 0 0 0 0
49	25299 9 0 0 0 0 1 0 0 0 0
50	25308 9 0 0 0 0 1 0 0 0 0
51	25317 9 0 0 0 0 1 0 0 0 0
52	25326 9 0 0 0 0 1 0 0 0 0
53	25335 9 0 0 0 0 1 0 0 0 0
54	25344 9 0 0 0 0 1 0 0 0 0
55	25353 94 0 66 0 0 4 390.51248379533 807.98137920128 2396.9877259932 1610667.818272
56	25447 9 0 0 0 0 1 1 1 1 1
57	25456 9 0 0 0 0 1 0 0 0 0
58	25465 94 0 68 0 0 4 390.51248379533 807.98137920128 2396.9877259932 1610667.818272
59	25559 9 0 0 0 0 1 1 1 1 1
60	25568 9 0 0 0 0 1 0 0 0 0
61	25577 94 0 70 0 0 4 390.51248379533 807.98137920128 2396.9877259932 1610667.818272
62	25671 9 0 0 0 0 1 1 1 1 1
63	25680 9 0 0 0 0 1 0 0 0 0
64	25689 94 0 72 0 0 4 390.51248379533 807.98137920128 2396.9877259932 1610667.818272
65	25783 9 0 0 0 0 1 1 1 1 1
66	25792 9 0 0 0 0 1 0 0 0 0
67	25801 94 0 74 0 0 4 390.51248379533 807.98137920128 2396.9877259932 1610667.818272
68	25895 9 0 0 0 0 1 1 1 1 1
69	25904 9 0 0 0 0 1 0 0 0 0
70	25913 94 0 76 0 0 4 390.51248379533 807.98137920128 2396.9877259932 1610667.818272
71	26007 9 0 0 0 0 1 1 1 1 1
72	26016 9 0 0 0 0 1 0 0 0 0
73	26025 94 0 78 0 0 4 390.51248379533 807.98137920128 2396.9877259932 1610667.818272
74	26119 9 0 0 0 0 1 1 1 1 1
75	26128 9 0 0 0 0 1 0 0 0 0
76	26137 94 0 80 0 0 4 390.51248379533 807.98137920128 2396.9877259932 1610667.818272
77	26231 9 0 0 0 0 1 1 1 1 1
78	26240 12 29 29 0 0 1 256 256 256 65536
79	26252 10 29 29 0 0 1 0 0 0 0
80	26262 12 29 29 0 0 1 256 256 256 65536
81	26274 11 29 29 0 0 1 32 32 32 1024
82	26285 11 29 29 0 0 1 39 39 39 1521
83	26296 10 29 29 0 0 1 0 0 0 0
84	26306 10 29 29 0 0 1 0 0 0 0
85	26316 22 82 82 0.0000000812 0.0000000812 1 39 39 39 1521
86	26338 22 82 82 0.0000000812 0.0000000812 1 32 32 32 1024
87	26360 134 92 300 0.001 0.009 9 0 0 0 0
88	26494 134 92 300 0.001 0.009 9 0 0 0 0
89	26628 134 93 301 0.001 0.009 9 0 0 0 0
90	26762 134 93 301 0.001 0.009 9 0 0 0 0
91	26896 58 132 284 0.002 0.008 2 11.191359688929 11.191359688929 22.382719377859 250.49306337399
92	26954 58 132 284 0.002 0.008 2 35.668072902632 35.668072902632 71.336145805264 2544.4228491749
93	27012 240 133 299 0.002 0.008 16 1 1 16 16
94	27252 58 134 286 0.002 0.008 2 26.804046457269 26.804046457269 53.608092914539 1436.9138129669
95	27310 58 134 286 0.002 0.008 2 41.517952236248 41.517952236248 83.035904472497 3447.4807157828
96	27368 58 136 288 0.002 0.008 2 15.802284061004 15.802284061004 31.604568122008 499.42436308932
97	27426 58 136 288 0.002 0.008 2 39.211394208217 39.211394208217 78.422788416434 3075.0668715044
98	27484 58 138 290 0.002 0.008 2 8.8055269613737 8.8055269613737 17.611053922747 155.07461013496
99	27542 58 138 290 0.002 0.008 2 30.828552178851 30.828552178851 61.657104357701 1900.7992588882
100	27600 60 140 292 0.002 0.008 2 17.657813508766 17.657813508766 35.315627017532 623.59675582072
101	27660 60 140 292 0.002 0.008 2 33.576834117086 33.576834117086 67.153668234173 2254.8075786527
102	27720 60 142 294 0.002 0.008 2 12.809612517451 12.809612517451 25.619225034902 328.17234569448
103	27780 60 142 294 0.002 0.008 2 18.520883361438 18.520883361438 37.041766722876 686.04624097597
104	27840 60 144 296 0.002 0.008 2 12.922303957422 12.922303957422 25.844607914844 333.971879136
105	27900 60 144 296 0.002 0.008 2 29.208981665377 29.208981665377 58.417963330754 1706.3292198567
106	27960 60 146 298 0.002 0.008 2 13.231420602757 13.231420602757 26.462841205514 350.14098233413
107	28020 60 146 298 0.002 0.008 2 35.259401386262 35.259401386262 70.518802772525 2486.4507722351
vector 108 MultiCell_Standalone.ue[0].app[1] packetSent:vector(packetBytes) ETV
attr interpolationmode none
attr recordingmode vector(packetBytes)
attr source packetSent
attr title "packets sent, packetBytes"