version 3
run test3-0-20240319-08:49:37-9816
attr configname test3
attr datetime 20240319-08:49:37
attr datetimef 20240319-084937
attr experiment test3
attr inifile omnetpp.ini
attr iterationvars ""
attr iterationvarsd ""
attr iterationvarsf ""
attr measurement ""
attr network MultiCell_Standalone
attr processid 9816
attr repetition 0
attr replication #0
attr resultdir results
attr runnumber 0
attr seedset 0
config image-path ../../inet4.5/images:../../simu5G/images
config network MultiCell_Standalone
config *.configurator.config "xmldoc(\"./config.xml\")"
config *.ue[*].mobility.typename ""
config *.ue[*].macCellId 0
config *.ue[*].masterId 0
config *.ue[*].nrMacCellId 1
config *.ue[*].nrMasterId 1
config **.dynamicCellAssociation true
config **.enableHandover true
config *.ue[*].numApps 1
config *.ue[*].app[*].typename CbrReceiver
config *.ue[*].app[*].localPort 3000
config *.server.numApps 1
config *.server.app[*].typename CbrSender
config *.server.app[*].PacketSize 100
config *.server.app[*].sampling_time 0.02s
config *.server.app[0].destAddress "\"224.0.1.1\""
config *.server.app[0].destPort 3000
config *.server.app[0].localPort "3088 + ancestorIndex(0)"
config *.server.app[0].startTime uniform(0s,0.02s)
config *.server.app[0].finishTime uniform(19.9s,19.92s)

vector 0 MultiCell_Standalone.server.ppp[0].ppp transmissionState:vector ETV
attr interpolationmode sample-hold
attr recordingmode vector
attr source transmissionStateChanged
attr title "tx state"
vector 1 MultiCell_Standalone.server.udp passedUpPk:vector(count) ETV
attr interpolationmode none
attr recordingmode vector(count)
attr source packetSentToUpper
attr title "packets passed up, count"
vector 2 MultiCell_Standalone.server.udp droppedPkWrongPort:vector(count) ETV
attr interpolationmode none
attr recordingmode vector(count)
attr source packetDropReasonIsNoPortFound(packetDropped)
attr title "packets dropped (wrong port), count"
vector 3 MultiCell_Standalone.server.udp droppedPkBadChecksum:vector(count) ETV
attr interpolationmode none
attr recordingmode vector(count)
attr source packetDropReasonIsIncorrectlyReceived(packetDropped)
attr title "packets dropped (checksum error), count"
vector 4 MultiCell_Standalone.router.ppp[0].ppp transmissionState:vector ETV
attr interpolationmode sample-hold
attr recordingmode vector
attr source transmissionStateChanged
attr title "tx state"
vector 5 MultiCell_Standalone.router.ppp[1].ppp transmissionState:vector ETV
attr interpolationmode sample-hold
attr recordingmode vector
attr source transmissionStateChanged
attr title "tx state"
vector 6 MultiCell_Standalone.upf.ppp[0].ppp transmissionState:vector ETV
attr interpolationmode sample-hold
attr recordingmode vector
attr source transmissionStateChanged
attr title "tx state"
vector 7 MultiCell_Standalone.upf.pppIf.ppp transmissionState:vector ETV
attr interpolationmode sample-hold
attr recordingmode vector
attr source transmissionStateChanged
attr title "tx state"
vector 8 MultiCell_Standalone.upf.udp passedUpPk:vector(count) ETV
attr interpolationmode none
attr recordingmode vector(count)
attr source packetSentToUpper
attr title "packets passed up, count"
vector 9 MultiCell_Standalone.upf.udp droppedPkWrongPort:vector(count) ETV
attr interpolationmode none
attr recordingmode vector(count)
attr source packetDropReasonIsNoPortFound(packetDropped)
attr title "packets dropped (wrong port), count"
vector 10 MultiCell_Standalone.upf.udp droppedPkBadChecksum:vector(count) ETV
attr interpolationmode none
attr recordingmode vector(count)
attr source packetDropReasonIsIncorrectlyReceived(packetDropped)
attr title "packets dropped (checksum error), count"
vector 11 MultiCell_Standalone.iUpf.ppp[0].ppp transmissionState:vector ETV
attr interpolationmode sample-hold
attr recordingmode vector
attr source transmissionStateChanged
attr title "tx state"
vector 12 MultiCell_Standalone.iUpf.ppp[1].ppp transmissionState:vector ETV
attr interpolationmode sample-hold
attr recordingmode vector
attr source transmissionStateChanged
attr title "tx state"
vector 13 MultiCell_Standalone.iUpf.ppp[2].ppp transmissionState:vector ETV
attr interpolationmode sample-hold
attr recordingmode vector
attr source transmissionStateChanged
attr title "tx state"
vector 14 MultiCell_Standalone.iUpf.pppIf.ppp transmissionState:vector ETV
attr interpolationmode sample-hold
attr recordingmode vector
attr source transmissionStateChanged
attr title "tx state"
vector 15 MultiCell_Standalone.iUpf.udp passedUpPk:vector(count) ETV
attr interpolationmode none
attr recordingmode vector(count)
attr source packetSentToUpper
attr title "packets passed up, count"
vector 16 MultiCell_Standalone.iUpf.udp droppedPkWrongPort:vector(count) ETV
attr interpolationmode none
attr recordingmode vector(count)
attr source packetDropReasonIsNoPortFound(packetDropped)
attr title "packets dropped (wrong port), count"
vector 17 MultiCell_Standalone.iUpf.udp droppedPkBadChecksum:vector(count) ETV
attr interpolationmode none
attr recordingmode vector(count)
attr source packetDropReasonIsIncorrectlyReceived(packetDropped)
attr title "packets dropped (checksum error), count"
vector 18 MultiCell_Standalone.gnb1.pppIf.ppp transmissionState:vector ETV
attr interpolationmode sample-hold
attr recordingmode vector
attr source transmissionStateChanged
attr title "tx state"
vector 19 MultiCell_Standalone.gnb1.x2ppp[0].ppp transmissionState:vector ETV
attr interpolationmode sample-hold
attr recordingmode vector
attr source transmissionStateChanged
attr title "tx state"
vector 20 MultiCell_Standalone.gnb1.pppMEHostIf.ppp transmissionState:vector ETV
attr interpolationmode sample-hold
attr recordingmode vector
attr source transmissionStateChanged
attr title "tx state"
vector 21 MultiCell_Standalone.gnb1.udp passedUpPk:vector(count) ETV
attr interpolationmode none
attr recordingmode vector(count)
attr source packetSentToUpper
attr title "packets passed up, count"
vector 22 MultiCell_Standalone.gnb1.udp droppedPkWrongPort:vector(count) ETV
attr interpolationmode none
attr recordingmode vector(count)
attr source packetDropReasonIsNoPortFound(packetDropped)
attr title "packets dropped (wrong port), count"
vector 23 MultiCell_Standalone.gnb1.udp droppedPkBadChecksum:vector(count) ETV
attr interpolationmode none
attr recordingmode vector(count)
attr source packetDropReasonIsIncorrectlyReceived(packetDropped)
attr title "packets dropped (checksum error), count"
vector 24 MultiCell_Standalone.gnb2.pppIf.ppp transmissionState:vector ETV
attr interpolationmode sample-hold
attr recordingmode vector
attr source transmissionStateChanged
attr title "tx state"
vector 25 MultiCell_Standalone.gnb2.x2ppp[0].ppp transmissionState:vector ETV
attr interpolationmode sample-hold
attr recordingmode vector
attr source transmissionStateChanged
attr title "tx state"
vector 26 MultiCell_Standalone.gnb2.pppMEHostIf.ppp transmissionState:vector ETV
attr interpolationmode sample-hold
attr recordingmode vector
attr source transmissionStateChanged
attr title "tx state"
vector 27 MultiCell_Standalone.gnb2.udp passedUpPk:vector(count) ETV
attr interpolationmode none
attr recordingmode vector(count)
attr source packetSentToUpper
attr title "packets passed up, count"
vector 28 MultiCell_Standalone.gnb2.udp droppedPkWrongPort:vector(count) ETV
attr interpolationmode none
attr recordingmode vector(count)
attr source packetDropReasonIsNoPortFound(packetDropped)
attr title "packets dropped (wrong port), count"
vector 29 MultiCell_Standalone.gnb2.udp droppedPkBadChecksum:vector(count) ETV
attr interpolationmode none
attr recordingmode vector(count)
attr source packetDropReasonIsIncorrectlyReceived(packetDropped)
attr title "packets dropped (checksum error), count"
vector 30 MultiCell_Standalone.ue[0].udp passedUpPk:vector(count) ETV
attr interpolationmode none
attr recordingmode vector(count)
attr source packetSentToUpper
attr title "packets passed up, count"
vector 31 MultiCell_Standalone.ue[0].udp droppedPkWrongPort:vector(count) ETV
attr interpolationmode none
attr recordingmode vector(count)
attr source packetDropReasonIsNoPortFound(packetDropped)
attr title "packets dropped (wrong port), count"
vector 32 MultiCell_Standalone.ue[0].udp droppedPkBadChecksum:vector(count) ETV
attr interpolationmode none
attr recordingmode vector(count)
attr source packetDropReasonIsIncorrectlyReceived(packetDropped)
attr title "packets dropped (checksum error), count"
vector 33 MultiCell_Standalone.ue[1].udp passedUpPk:vector(count) ETV
attr interpolationmode none
attr recordingmode vector(count)
attr source packetSentToUpper
attr title "packets passed up, count"
vector 34 MultiCell_Standalone.ue[1].udp droppedPkWrongPort:vector(count) ETV
attr interpolationmode none
attr recordingmode vector(count)
attr source packetDropReasonIsNoPortFound(packetDropped)
attr title "packets dropped (wrong port), count"
vector 35 MultiCell_Standalone.ue[1].udp droppedPkBadChecksum:vector(count) ETV
attr interpolationmode none
attr recordingmode vector(count)
attr source packetDropReasonIsIncorrectlyReceived(packetDropped)
attr title "packets dropped (checksum error), count"
vector 36 MultiCell_Standalone.ue[2].udp passedUpPk:vector(count) ETV
attr interpolationmode none
attr recordingmode vector(count)
attr source packetSentToUpper
attr title "packets passed up, count"
vector 37 MultiCell_Standalone.ue[2].udp droppedPkWrongPort:vector(count) ETV
attr interpolationmode none
attr recordingmode vector(count)
attr source packetDropReasonIsNoPortFound(packetDropped)
attr title "packets dropped (wrong port), count"
vector 38 MultiCell_Standalone.ue[2].udp droppedPkBadChecksum:vector(count) ETV
attr interpolationmode none
attr recordingmode vector(count)
attr source packetDropReasonIsIncorrectlyReceived(packetDropped)
attr title "packets dropped (checksum error), count"
vector 39 MultiCell_Standalone.ue[3].udp passedUpPk:vector(count) ETV
attr interpolationmode none
attr recordingmode vector(count)
attr source packetSentToUpper
attr title "packets passed up, count"
vector 40 MultiCell_Standalone.ue[3].udp droppedPkWrongPort:vector(count) ETV
attr interpolationmode none
attr recordingmode vector(count)
attr source packetDropReasonIsNoPortFound(packetDropped)
attr title "packets dropped (wrong port), count"
vector 41 MultiCell_Standalone.ue[3].udp droppedPkBadChecksum:vector(count) ETV
attr interpolationmode none
attr recordingmode vector(count)
attr source packetDropReasonIsIncorrectlyReceived(packetDropped)
attr title "packets dropped (checksum error), count"
vector 42 MultiCell_Standalone.ue[4].udp passedUpPk:vector(count) ETV
attr interpolationmode none
attr recordingmode vector(count)
attr source packetSentToUpper
attr title "packets passed up, count"
vector 43 MultiCell_Standalone.ue[4].udp droppedPkWrongPort:vector(count) ETV
attr interpolationmode none
attr recordingmode vector(count)
attr source packetDropReasonIsNoPortFound(packetDropped)
attr title "packets dropped (wrong port), count"
vector 44 MultiCell_Standalone.ue[4].udp droppedPkBadChecksum:vector(count) ETV
attr interpolationmode none
attr recordingmode vector(count)
attr source packetDropReasonIsIncorrectlyReceived(packetDropped)
attr title "packets dropped (checksum error), count"
vector 45 MultiCell_Standalone.ue[5].udp passedUpPk:vector(count) ETV
attr interpolationmode none
attr recordingmode vector(count)
attr source packetSentToUpper
attr title "packets passed up, count"
vector 46 MultiCell_Standalone.ue[5].udp droppedPkWrongPort:vector(count) ETV
attr interpolationmode none
attr recordingmode vector(count)
attr source packetDropReasonIsNoPortFound(packetDropped)
attr title "packets dropped (wrong port), count"
vector 47 MultiCell_Standalone.ue[5].udp droppedPkBadChecksum:vector(count) ETV
attr interpolationmode none
attr recordingmode vector(count)
attr source packetDropReasonIsIncorrectlyReceived(packetDropped)
attr title "packets dropped (checksum error), count"
vector 48 MultiCell_Standalone.ue[6].udp passedUpPk:vector(count) ETV
attr interpolationmode none
attr recordingmode vector(count)
attr source packetSentToUpper
attr title "packets passed up, count"
vector 49 MultiCell_Standalone.ue[6].udp droppedPkWrongPort:vector(count) ETV
attr interpolationmode none
attr recordingmode vector(count)
attr source packetDropReasonIsNoPortFound(packetDropped)
attr title "packets dropped (wrong port), count"
vector 50 MultiCell_Standalone.ue[6].udp droppedPkBadChecksum:vector(count) ETV
attr interpolationmode none
attr recordingmode vector(count)
attr source packetDropReasonIsIncorrectlyReceived(packetDropped)
attr title "packets dropped (checksum error), count"
vector 51 MultiCell_Standalone.ue[7].udp passedUpPk:vector(count) ETV
attr interpolationmode none
attr recordingmode vector(count)
attr source packetSentToUpper
attr title "packets passed up, count"
vector 52 MultiCell_Standalone.ue[7].udp droppedPkWrongPort:vector(count) ETV
attr interpolationmode none
attr recordingmode vector(count)
attr source packetDropReasonIsNoPortFound(packetDropped)
attr title "packets dropped (wrong port), count"
vector 53 MultiCell_Standalone.ue[7].udp droppedPkBadChecksum:vector(count) ETV
attr interpolationmode none
attr recordingmode vector(count)
attr source packetDropReasonIsIncorrectlyReceived(packetDropped)
attr title "packets dropped (checksum error), count"
vector 54 MultiCell_Standalone.ue[0].cellularNic.phy servingCell:vector ETV
attr recordingmode vector
attr source servingCell
attr title "ID of the serving eNodeB for the UE"
attr unit ""
vector 55 MultiCell_Standalone.ue[0].cellularNic.nrChannelModel[0] distance:vector ETV
attr recordingmode vector
attr source distance
attr title "distance between UE and serving base station"
attr unit meters
vector 56 MultiCell_Standalone.ue[0].cellularNic.nrPhy servingCell:vector ETV
attr recordingmode vector
attr source servingCell
attr title "ID of the serving eNodeB for the UE"
attr unit ""
vector 57 MultiCell_Standalone.ue[1].cellularNic.phy servingCell:vector ETV
attr recordingmode vector
attr source servingCell
attr title "ID of the serving eNodeB for the UE"
attr unit ""
vector 58 MultiCell_Standalone.ue[1].cellularNic.nrChannelModel[0] distance:vector ETV
attr recordingmode vector
attr source distance
attr title "distance between UE and serving base station"
attr unit meters
vector 59 MultiCell_Standalone.ue[1].cellularNic.nrPhy servingCell:vector ETV
attr recordingmode vector
attr source servingCell
attr title "ID of the serving eNodeB for the UE"
attr unit ""
vector 60 MultiCell_Standalone.ue[2].cellularNic.phy servingCell:vector ETV
attr recordingmode vector
attr source servingCell
attr title "ID of the serving eNodeB for the UE"
attr unit ""
vector 61 MultiCell_Standalone.ue[2].cellularNic.nrChannelModel[0] distance:vector ETV
attr recordingmode vector
attr source distance
attr title "distance between UE and serving base station"
attr unit meters
vector 62 MultiCell_Standalone.ue[2].cellularNic.nrPhy servingCell:vector ETV
attr recordingmode vector
attr source servingCell
attr title "ID of the serving eNodeB for the UE"
attr unit ""
vector 63 MultiCell_Standalone.ue[3].cellularNic.phy servingCell:vector ETV
attr recordingmode vector
attr source servingCell
attr title "ID of the serving eNodeB for the UE"
attr unit ""
vector 64 MultiCell_Standalone.ue[3].cellularNic.nrChannelModel[0] distance:vector ETV
attr recordingmode vector
attr source distance
attr title "distance between UE and serving base station"
attr unit meters
vector 65 MultiCell_Standalone.ue[3].cellularNic.nrPhy servingCell:vector ETV
attr recordingmode vector
attr source servingCell
attr title "ID of the serving eNodeB for the UE"
attr unit ""
vector 66 MultiCell_Standalone.ue[4].cellularNic.phy servingCell:vector ETV
attr recordingmode vector
attr source servingCell
attr title "ID of the serving eNodeB for the UE"
attr unit ""
vector 67 MultiCell_Standalone.ue[4].cellularNic.nrChannelModel[0] distance:vector ETV
attr recordingmode vector
attr source distance
attr title "distance between UE and serving base station"
attr unit meters
vector 68 MultiCell_Standalone.ue[4].cellularNic.nrPhy servingCell:vector ETV
attr recordingmode vector
attr source servingCell
attr title "ID of the serving eNodeB for the UE"
attr unit ""
vector 69 MultiCell_Standalone.ue[5].cellularNic.phy servingCell:vector ETV
attr recordingmode vector
attr source servingCell
attr title "ID of the serving eNodeB for the UE"
attr unit ""
vector 70 MultiCell_Standalone.ue[5].cellularNic.nrChannelModel[0] distance:vector ETV
attr recordingmode vector
attr source distance
attr title "distance between UE and serving base station"
attr unit meters
vector 71 MultiCell_Standalone.ue[5].cellularNic.nrPhy servingCell:vector ETV
attr recordingmode vector
attr source servingCell
attr title "ID of the serving eNodeB for the UE"
attr unit ""
vector 72 MultiCell_Standalone.ue[6].cellularNic.phy servingCell:vector ETV
attr recordingmode vector
attr source servingCell
attr title "ID of the serving eNodeB for the UE"
attr unit ""
vector 73 MultiCell_Standalone.ue[6].cellularNic.nrChannelModel[0] distance:vector ETV
attr recordingmode vector
attr source distance
attr title "distance between UE and serving base station"
attr unit meters
vector 74 MultiCell_Standalone.ue[6].cellularNic.nrPhy servingCell:vector ETV
attr recordingmode vector
attr source servingCell
attr title "ID of the serving eNodeB for the UE"
attr unit ""
vector 75 MultiCell_Standalone.ue[7].cellularNic.phy servingCell:vector ETV
attr recordingmode vector
attr source servingCell
attr title "ID of the serving eNodeB for the UE"
attr unit ""
vector 76 MultiCell_Standalone.ue[7].cellularNic.nrChannelModel[0] distance:vector ETV
attr recordingmode vector
attr source distance
attr title "distance between UE and serving base station"
attr unit meters
vector 77 MultiCell_Standalone.ue[7].cellularNic.nrPhy servingCell:vector ETV
attr recordingmode vector
attr source servingCell
attr title "ID of the serving eNodeB for the UE"
attr unit ""
vector 78 MultiCell_Standalone.ue[0].cellularNic.pdcpRrc receivedPacketFromUpperLayer:vector(packetBytes) ETV
attr interpolationmode none
attr recordingmode vector(packetBytes)
attr source receivedPacketFromUpperLayer
vector 79 MultiCell_Standalone.ue[0].cellularNic.pdcpRrc sentPacketToLowerLayer:vector(packetBytes) ETV
attr interpolationmode none
attr recordingmode vector(packetBytes)
attr source sentPacketToLowerLayer
vector 80 MultiCell_Standalone.ue[1].cellularNic.pdcpRrc receivedPacketFromUpperLayer:vector(packetBytes) ETV
attr interpolationmode none
attr recordingmode vector(packetBytes)
attr source receivedPacketFromUpperLayer
vector 81 MultiCell_Standalone.ue[1].cellularNic.pdcpRrc sentPacketToLowerLayer:vector(packetBytes) ETV
attr interpolationmode none
attr recordingmode vector(packetBytes)
attr source sentPacketToLowerLayer
vector 82 MultiCell_Standalone.ue[2].cellularNic.pdcpRrc receivedPacketFromUpperLayer:vector(packetBytes) ETV
attr interpolationmode none
attr recordingmode vector(packetBytes)
attr source receivedPacketFromUpperLayer
vector 83 MultiCell_Standalone.ue[2].cellularNic.pdcpRrc sentPacketToLowerLayer:vector(packetBytes) ETV
attr interpolationmode none
attr recordingmode vector(packetBytes)
attr source sentPacketToLowerLayer
vector 84 MultiCell_Standalone.ue[3].cellularNic.pdcpRrc receivedPacketFromUpperLayer:vector(packetBytes) ETV
attr interpolationmode none
attr recordingmode vector(packetBytes)
attr source receivedPacketFromUpperLayer
vector 85 MultiCell_Standalone.ue[3].cellularNic.pdcpRrc sentPacketToLowerLayer:vector(packetBytes) ETV
attr interpolationmode none
attr recordingmode vector(packetBytes)
attr source sentPacketToLowerLayer
vector 86 MultiCell_Standalone.ue[4].cellularNic.pdcpRrc receivedPacketFromUpperLayer:vector(packetBytes) ETV
attr interpolationmode none
attr recordingmode vector(packetBytes)
attr source receivedPacketFromUpperLayer
vector 87 MultiCell_Standalone.ue[4].cellularNic.pdcpRrc sentPacketToLowerLayer:vector(packetBytes) ETV
attr interpolationmode none
attr recordingmode vector(packetBytes)
attr source sentPacketToLowerLayer
vector 88 MultiCell_Standalone.ue[5].cellularNic.pdcpRrc receivedPacketFromUpperLayer:vector(packetBytes) ETV
attr interpolationmode none
attr recordingmode vector(packetBytes)
attr source receivedPacketFromUpperLayer
vector 89 MultiCell_Standalone.ue[5].cellularNic.pdcpRrc sentPacketToLowerLayer:vector(packetBytes) ETV
attr interpolationmode none
attr recordingmode vector(packetBytes)
attr source sentPacketToLowerLayer
vector 90 MultiCell_Standalone.ue[6].cellularNic.pdcpRrc receivedPacketFromUpperLayer:vector(packetBytes) ETV
attr interpolationmode none
attr recordingmode vector(packetBytes)
attr source receivedPacketFromUpperLayer
vector 91 MultiCell_Standalone.ue[6].cellularNic.pdcpRrc sentPacketToLowerLayer:vector(packetBytes) ETV
attr interpolationmode none
attr recordingmode vector(packetBytes)
attr source sentPacketToLowerLayer
vector 92 MultiCell_Standalone.ue[7].cellularNic.pdcpRrc receivedPacketFromUpperLayer:vector(packetBytes) ETV
attr interpolationmode none
attr recordingmode vector(packetBytes)
attr source receivedPacketFromUpperLayer
vector 93 MultiCell_Standalone.ue[7].cellularNic.pdcpRrc sentPacketToLowerLayer:vector(packetBytes) ETV
attr interpolationmode none
attr recordingmode vector(packetBytes)
attr source sentPacketToLowerLayer
vector 94 MultiCell_Standalone.ue[0].cellularNic.nrRlc.um receivedPacketFromUpperLayer:vector(packetBytes) ETV
attr interpolationmode none
attr recordingmode vector(packetBytes)
attr source receivedPacketFromUpperLayer
vector 95 MultiCell_Standalone.ue[1].cellularNic.nrRlc.um receivedPacketFromUpperLayer:vector(packetBytes) ETV
attr interpolationmode none
attr recordingmode vector(packetBytes)
attr source receivedPacketFromUpperLayer
vector 96 MultiCell_Standalone.ue[2].cellularNic.nrRlc.um receivedPacketFromUpperLayer:vector(packetBytes) ETV
attr interpolationmode none
attr recordingmode vector(packetBytes)
attr source receivedPacketFromUpperLayer
vector 97 MultiCell_Standalone.ue[3].cellularNic.nrRlc.um receivedPacketFromUpperLayer:vector(packetBytes) ETV
attr interpolationmode none
attr recordingmode vector(packetBytes)
attr source receivedPacketFromUpperLayer
vector 98 MultiCell_Standalone.ue[4].cellularNic.nrRlc.um receivedPacketFromUpperLayer:vector(packetBytes) ETV
attr interpolationmode none
attr recordingmode vector(packetBytes)
attr source receivedPacketFromUpperLayer
vector 99 MultiCell_Standalone.ue[5].cellularNic.nrRlc.um receivedPacketFromUpperLayer:vector(packetBytes) ETV
attr interpolationmode none
attr recordingmode vector(packetBytes)
attr source receivedPacketFromUpperLayer
vector 100 MultiCell_Standalone.ue[6].cellularNic.nrRlc.um receivedPacketFromUpperLayer:vector(packetBytes) ETV
attr interpolationmode none
attr recordingmode vector(packetBytes)
attr source receivedPacketFromUpperLayer
vector 101 MultiCell_Standalone.ue[7].cellularNic.nrRlc.um receivedPacketFromUpperLayer:vector(packetBytes) ETV
attr interpolationmode none
attr recordingmode vector(packetBytes)
attr source receivedPacketFromUpperLayer
vector 102 MultiCell_Standalone.ue[0].cellularNic.nrMac receivedPacketFromUpperLayer:vector(packetBytes) ETV
attr interpolationmode none
attr recordingmode vector(packetBytes)
attr source receivedPacketFromUpperLayer
vector 103 MultiCell_Standalone.ue[1].cellularNic.nrMac receivedPacketFromUpperLayer:vector(packetBytes) ETV
attr interpolationmode none
attr recordingmode vector(packetBytes)
attr source receivedPacketFromUpperLayer
vector 104 MultiCell_Standalone.ue[2].cellularNic.nrMac receivedPacketFromUpperLayer:vector(packetBytes) ETV
attr interpolationmode none
attr recordingmode vector(packetBytes)
attr source receivedPacketFromUpperLayer
vector 105 MultiCell_Standalone.ue[3].cellularNic.nrMac receivedPacketFromUpperLayer:vector(packetBytes) ETV
attr interpolationmode none
attr recordingmode vector(packetBytes)
attr source receivedPacketFromUpperLayer
vector 106 MultiCell_Standalone.ue[4].cellularNic.nrMac receivedPacketFromUpperLayer:vector(packetBytes) ETV
attr interpolationmode none
attr recordingmode vector(packetBytes)
attr source receivedPacketFromUpperLayer
vector 107 MultiCell_Standalone.ue[5].cellularNic.nrMac receivedPacketFromUpperLayer:vector(packetBytes) ETV
attr interpolationmode none
attr recordingmode vector(packetBytes)
attr source receivedPacketFromUpperLayer
vector 108 MultiCell_Standalone.ue[6].cellularNic.nrMac receivedPacketFromUpperLayer:vector(packetBytes) ETV
attr interpolationmode none
attr recordingmode vector(packetBytes)
attr source receivedPacketFromUpperLayer
vector 109 MultiCell_Standalone.ue[7].cellularNic.nrMac receivedPacketFromUpperLayer:vector(packetBytes) ETV
attr interpolationmode none
attr recordingmode vector(packetBytes)
attr source receivedPacketFromUpperLayer
vector 110 MultiCell_Standalone.gnb1.cellularNic.mac avgServedBlocksUl:vector ETV
attr recordingmode vector
attr source avgServedBlocksUl
attr title "Avg Served Blocks Ul"
attr unit blocks
vector 111 MultiCell_Standalone.gnb1.cellularNic.mac avgServedBlocksDl:vector ETV
attr recordingmode vector
attr source avgServedBlocksDl
attr title "Avg Served Blocks Dl"
attr unit blocks
vector 112 MultiCell_Standalone.gnb2.cellularNic.mac avgServedBlocksUl:vector ETV
attr recordingmode vector
attr source avgServedBlocksUl
attr title "Avg Served Blocks Ul"
attr unit blocks
vector 113 MultiCell_Standalone.gnb2.cellularNic.mac avgServedBlocksDl:vector ETV
attr recordingmode vector
attr source avgServedBlocksDl
attr title "Avg Served Blocks Dl"
attr unit blocks
vector 114 MultiCell_Standalone.ue[0].cellularNic.nrMac sentPacketToLowerLayer:vector(packetBytes) ETV
attr interpolationmode none
attr recordingmode vector(packetBytes)
attr source sentPacketToLowerLayer
vector 115 MultiCell_Standalone.ue[1].cellularNic.nrMac sentPacketToLowerLayer:vector(packetBytes) ETV
attr interpolationmode none
attr recordingmode vector(packetBytes)
attr source sentPacketToLowerLayer
vector 116 MultiCell_Standalone.ue[2].cellularNic.nrMac sentPacketToLowerLayer:vector(packetBytes) ETV
attr interpolationmode none
attr recordingmode vector(packetBytes)
attr source sentPacketToLowerLayer
vector 117 MultiCell_Standalone.ue[3].cellularNic.nrMac sentPacketToLowerLayer:vector(packetBytes) ETV
attr interpolationmode none
attr recordingmode vector(packetBytes)
attr source sentPacketToLowerLayer
vector 118 MultiCell_Standalone.ue[4].cellularNic.nrMac sentPacketToLowerLayer:vector(packetBytes) ETV
attr interpolationmode none
attr recordingmode vector(packetBytes)
attr source sentPacketToLowerLayer
vector 119 MultiCell_Standalone.ue[5].cellularNic.nrMac sentPacketToLowerLayer:vector(packetBytes) ETV
attr interpolationmode none
attr recordingmode vector(packetBytes)
attr source sentPacketToLowerLayer
vector 120 MultiCell_Standalone.ue[6].cellularNic.nrMac sentPacketToLowerLayer:vector(packetBytes) ETV
attr interpolationmode none
attr recordingmode vector(packetBytes)
attr source sentPacketToLowerLayer
vector 121 MultiCell_Standalone.ue[7].cellularNic.nrMac sentPacketToLowerLayer:vector(packetBytes) ETV
attr interpolationmode none
attr recordingmode vector(packetBytes)
attr source sentPacketToLowerLayer
vector 122 MultiCell_Standalone.ue[0].cellularNic.nrChannelModel[0] measuredSinrUl:vector ETV
attr recordingmode vector
attr source measuredSinrUl
attr title "SINR measured at feedback computation, UL"
attr unit dB
vector 123 MultiCell_Standalone.ue[0].cellularNic.nrChannelModel[0] measuredSinrDl:vector ETV
attr recordingmode vector
attr source measuredSinrDl
attr title "SINR measured at feedback computation, DL"
attr unit dB
vector 124 MultiCell_Standalone.gnb1.cellularNic.mac receivedPacketFromLowerLayer:vector(packetBytes) ETV
attr interpolationmode none
attr recordingmode vector(packetBytes)
attr source receivedPacketFromLowerLayer
vector 125 MultiCell_Standalone.ue[1].cellularNic.nrChannelModel[0] measuredSinrUl:vector ETV
attr recordingmode vector
attr source measuredSinrUl
attr title "SINR measured at feedback computation, UL"
attr unit dB
vector 126 MultiCell_Standalone.ue[1].cellularNic.nrChannelModel[0] measuredSinrDl:vector ETV
attr recordingmode vector
attr source measuredSinrDl
attr title "SINR measured at feedback computation, DL"
attr unit dB
vector 127 MultiCell_Standalone.ue[2].cellularNic.nrChannelModel[0] measuredSinrUl:vector ETV
attr recordingmode vector
attr source measuredSinrUl
attr title "SINR measured at feedback computation, UL"
attr unit dB
vector 128 MultiCell_Standalone.ue[2].cellularNic.nrChannelModel[0] measuredSinrDl:vector ETV
attr recordingmode vector
attr source measuredSinrDl
attr title "SINR measured at feedback computation, DL"
attr unit dB
vector 129 MultiCell_Standalone.ue[3].cellularNic.nrChannelModel[0] measuredSinrUl:vector ETV
attr recordingmode vector
attr source measuredSinrUl
attr title "SINR measured at feedback computation, UL"
attr unit dB
vector 130 MultiCell_Standalone.ue[3].cellularNic.nrChannelModel[0] measuredSinrDl:vector ETV
attr recordingmode vector
attr source measuredSinrDl
attr title "SINR measured at feedback computation, DL"
attr unit dB
vector 131 MultiCell_Standalone.ue[4].cellularNic.nrChannelModel[0] measuredSinrUl:vector ETV
attr recordingmode vector
attr source measuredSinrUl
attr title "SINR measured at feedback computation, UL"
attr unit dB
vector 132 MultiCell_Standalone.ue[4].cellularNic.nrChannelModel[0] measuredSinrDl:vector ETV
attr recordingmode vector
attr source measuredSinrDl
attr title "SINR measured at feedback computation, DL"
attr unit dB
vector 133 MultiCell_Standalone.ue[5].cellularNic.nrChannelModel[0] measuredSinrUl:vector ETV
attr recordingmode vector
attr source measuredSinrUl
attr title "SINR measured at feedback computation, UL"
attr unit dB